/*--------------------------------*- C++ -*----------------------------------*\
| =========                 |                                                 |
| \\      /  F ield         | OpenFOAM: The Open Source CFD Toolbox           |
|  \\    /   O peration     | Version:  v2012                                 |
|   \\  /    A nd           | Website:  www.openfoam.com                      |
|    \\/     M anipulation  |                                                 |
\*---------------------------------------------------------------------------*/
FoamFile
{
    version     2.0;
    format      ascii;
    class       pointScalarField;
    object      pointDisplacement;
}
// * * * * * * * * * * * * * * * * * * * * * * * * * * * * * * * * * * * * * //

dimensions      [0 1 0 0 0 0 0];

internalField   uniform 0;

boundaryField
{
    inlet
    {
        type            uniformFixedValue;//uniformFixedValue;
        uniformValue    0;
    }

    outlet
    {
        type            uniformFixedValue;
        uniformValue    0;
    }


    walls
    {
        type            uniformFixedValue;
        uniformValue    0;
    }

    
    top
    {
        type            uniformFixedValue;
        uniformValue    0;
    }


    
    down
    {
        type            timeVaryingMappedFixedValue;
	//offset		0;
//        setAverage      true;
//        mapMethod       nearest;
        outOfBounds     clamp;
      //  type            fixedValue;//uniformFixedValue;
//        uniformValue    -1;
        //value           nonuniform List<scalar> 

    }
}

// ************************************************************************* //
